# vtk DataFile Version 3.0
LIGGGHTS grid/mesh
ASCII
DATASET UNSTRUCTURED_GRID
POINTS 96 float
-1.0 -1.0 -2.0
-0.5 -1.5 -2.0
0.5 -1.5 -2.0
1.0 -1.0 -2.0
-1.5 -0.5 -2.0
-0.5 -0.5 -2.0
0.5 -0.5 -2.0
1.5 -0.5 -2.0
-1.5 0.5 -2.0
-0.5 0.5 -2.0
0.5 0.5 -2.0
1.5 0.5 -2.0
-1.0 1.0 -2.0
-0.5 1.5 -2.0
0.5 1.5 -2.0
1.0 1.0 -2.0
-1.0 -1.0 -1.2
-0.5 -1.5 -1.2
0.5 -1.5 -1.2
1.0 -1.0 -1.2
-1.5 -0.5 -1.2
-0.5 -0.5 -1.2
0.5 -0.5 -1.2
1.5 -0.5 -1.2
-1.5 0.5 -1.2
-0.5 0.5 -1.2
0.5 0.5 -1.2
1.5 0.5 -1.2
-1.0 1.0 -1.2
-0.5 1.5 -1.2
0.5 1.5 -1.2
1.0 1.0 -1.2
-1.0 -1.0 -0.4
-0.5 -1.5 -0.4
0.5 -1.5 -0.4
1.0 -1.0 -0.4
-1.5 -0.5 -0.4
-0.5 -0.5 -0.4
0.5 -0.5 -0.4
1.5 -0.5 -0.4
-1.5 0.5 -0.4
-0.5 0.5 -0.4
0.5 0.5 -0.4
1.5 0.5 -0.4
-1.0 1.0 -0.4
-0.5 1.5 -0.4
0.5 1.5 -0.4
1.0 1.0 -0.4
-1.0 -1.0 0.4
-0.5 -1.5 0.4
0.5 -1.5 0.4
1.0 -1.0 0.4
-1.5 -0.5 0.4
-0.5 -0.5 0.4
0.5 -0.5 0.4
1.5 -0.5 0.4
-1.5 0.5 0.4
-0.5 0.5 0.4
0.5 0.5 0.4
1.5 0.5 0.4
-1.0 1.0 0.4
-0.5 1.5 0.4
0.5 1.5 0.4
1.0 1.0 0.4
-1.0 -1.0 1.2
-0.5 -1.5 1.2
0.5 -1.5 1.2
1.0 -1.0 1.2
-1.5 -0.5 1.2
-0.5 -0.5 1.2
0.5 -0.5 1.2
1.5 -0.5 1.2
-1.5 0.5 1.2
-0.5 0.5 1.2
0.5 0.5 1.2
1.5 0.5 1.2
-1.0 1.0 1.2
-0.5 1.5 1.2
0.5 1.5 1.2
1.0 1.0 1.2
-1.0 -1.0 2.0
-0.5 -1.5 2.0
0.5 -1.5 2.0
1.0 -1.0 2.0
-1.5 -0.5 2.0
-0.5 -0.5 2.0
0.5 -0.5 2.0
1.5 -0.5 2.0
-1.5 0.5 2.0
-0.5 0.5 2.0
0.5 0.5 2.0
1.5 0.5 2.0
-1.0 1.0 2.0
-0.5 1.5 2.0
0.5 1.5 2.0
1.0 1.0 2.0

CELLS 45 405
8 0 1 5 4 16 17 21 20
8 1 2 6 5 17 18 22 21
8 2 3 7 6 18 19 23 22
8 4 5 9 8 20 21 25 24
8 5 6 10 9 21 22 26 25
8 6 7 11 10 22 23 27 26
8 8 9 13 12 24 25 29 28
8 9 10 14 13 25 26 30 29
8 10 11 15 14 26 27 31 30
8 16 17 21 20 32 33 37 36
8 17 18 22 21 33 34 38 37
8 18 19 23 22 34 35 39 38
8 20 21 25 24 36 37 41 40
8 21 22 26 25 37 38 42 41
8 22 23 27 26 38 39 43 42
8 24 25 29 28 40 41 45 44
8 25 26 30 29 41 42 46 45
8 26 27 31 30 42 43 47 46
8 32 33 37 36 48 49 53 52
8 33 34 38 37 49 50 54 53
8 34 35 39 38 50 51 55 54
8 36 37 41 40 52 53 57 56
8 37 38 42 41 53 54 58 57
8 38 39 43 42 54 55 59 58
8 40 41 45 44 56 57 61 60
8 41 42 46 45 57 58 62 61
8 42 43 47 46 58 59 63 62
8 48 49 53 52 64 65 69 68
8 49 50 54 53 65 66 70 69
8 50 51 55 54 66 67 71 70
8 52 53 57 56 68 69 73 72
8 53 54 58 57 69 70 74 73
8 54 55 59 58 70 71 75 74
8 56 57 61 60 72 73 77 76
8 57 58 62 61 73 74 78 77
8 58 59 63 62 74 75 79 78
8 64 65 69 68 80 81 85 84
8 65 66 70 69 81 82 86 85
8 66 67 71 70 82 83 87 86
8 68 69 73 72 84 85 89 88
8 69 70 74 73 85 86 90 89
8 70 71 75 74 86 87 91 90
8 72 73 77 76 88 89 93 92
8 73 74 78 77 89 90 94 93
8 74 75 79 78 90 91 95 94

CELL_TYPES 45
12
12
12
12
12
12
12
12
12
12
12
12
12
12
12
12
12
12
12
12
12
12
12
12
12
12
12
12
12
12
12
12
12
12
12
12
12
12
12
12
12
12
12
12
12

CELL_DATA 45
SCALARS cell_id int 1
LOOKUP_TABLE default
0
1
2
3
4
5
6
7
8
9
10
11
12
13
14
15
16
17
18
19
20
21
22
23
24
25
26
27
28
29
30
31
32
33
34
35
36
37
38
39
40
41
42
43
44

