# vtk DataFile Version 4.1
Generated by LIGGGHTS
ASCII
DATASET UNSTRUCTURED_GRID
POINTS 9 float
0 -0.5 0 -0.5 -0.5 0 -0.5 0 0 
0.5 -0.5 0 0.5 0 0 -0.5 0.5 0 
0.5 0.5 0 0 0.5 0 0 0 0 

CELLS 8 32
3 1 0 2 
3 8 2 0 
3 0 3 8 
3 4 8 3 
3 2 8 5 
3 7 5 8 
3 8 4 7 
3 6 7 4 

CELL_TYPES 8
5
5
5
5
5
5
5
5

CELL_DATA 8
SCALARS cell_id int
LOOKUP_TABLE default
0 0 1 1 2 2 3 3 
FIELD FieldData 1
face_id 1 8 int
0 0 1 1 2 2 3 3
