# vtk DataFile Version 3.0
LIGGGHTS surface/mesh
ASCII
DATASET UNSTRUCTURED_GRID
POINTS 10 float
 0.00  0.00 -0.02
-0.02 -0.02 -0.005
 0.02 -0.02 -0.005
 0.02  0.02 -0.005
-0.02  0.02 -0.005
-0.02 -0.02  0.005
 0.02 -0.02  0.005
 0.02  0.02  0.005
-0.02  0.02  0.005
 0.00  0.00  0.02

CELLS 12 52
3 0 2 1
3 0 3 2
3 0 4 3
3 0 1 4
4 1 2 6 5
4 2 3 7 6
4 3 4 8 7
4 4 1 5 8
3 9 5 6
3 9 6 7
3 9 7 8
3 9 8 5

CELL_TYPES 12
5
5
5
5
9
9
9
9
5
5
5
5

CELL_DATA 12
SCALARS face_id int 1
LOOKUP_TABLE default
0
1
2
3
4
5
6
7
8
9
10
11

