# vtk DataFile Version 3.0
LIGGGHTS surface/mesh
ASCII
DATASET UNSTRUCTURED_GRID
POINTS 6 float
 0.00  0.00 -0.02
-0.02 -0.02  0.00
 0.02 -0.02  0.00
 0.02  0.02  0.00
-0.02  0.02  0.00
 0.00  0.00  0.02

CELLS 8 32
3 0 2 1
3 0 3 2
3 0 4 3
3 0 1 4
3 5 1 2
3 5 2 3
3 5 3 4
3 5 4 1

CELL_TYPES 8
5
5
5
5
5
5
5
5

CELL_DATA 8
SCALARS face_id int 1
LOOKUP_TABLE default
0
1
2
3
4
5
6
7

