# vtk DataFile Version 2.0
Generated by lpp.py
ASCII
DATASET POLYDATA
POINTS 2 float
0.0 0.0 0.0448995
0.0 0.0 0.0551005
VERTICES 2 4
1 0
1 1
POINT_DATA 2
VECTORS f float
0.0 0.0 0.0
0.0 0.0 0.0
VECTORS tq float
0.0 0.0 0.0
0.0 0.0 0.0
VECTORS shape float
0.002 0.002 0.004
0.002 0.002 0.004
VECTORS angmom float
0.0 0.0 0.0
0.0 0.0 0.0
VECTORS v float
0.0 0.0 -0.0455183
0.0 0.0 0.0455183
VECTORS omega float
0.0 0.0 0.0
0.0 0.0 0.0
SCALARS blockiness1 float 1
LOOKUP_TABLE default
4.0
4.0
SCALARS blockiness2 float 1
LOOKUP_TABLE default
4.0
4.0
SCALARS quat2 float 1
LOOKUP_TABLE default
0.0
0.0
SCALARS quat3 float 1
LOOKUP_TABLE default
0.0
0.0
SCALARS quat1 float 1
LOOKUP_TABLE default
1.0
1.0
SCALARS mass float 1
LOOKUP_TABLE default
0.000259279
0.000259279
SCALARS quat4 float 1
LOOKUP_TABLE default
0.0
0.0
SCALARS radius float 1
LOOKUP_TABLE default
0.00411995
0.00411995
SCALARS type float 1
LOOKUP_TABLE default
2.0
2.0
SCALARS id float 1
LOOKUP_TABLE default
1.0
2.0

