LIGGGHTS data file from restart file: timestep = 1000, procs = 12

11 atoms

2 atom types

20 extra bond per atom

-5.334 10.668 xlo xhi
-1 1 ylo yhi
-5.334 1 zlo zhi

Atoms

1 1 0 0 0 0.508 2500 0
2 1 0.508 0 0 0.508 2500 0
3 1 1.016 0 0 0.508 2500 0
4 1 1.524 0 0 0.508 2500 0
5 1 2.032 0 0 0.508 2500 0
6 1 2.54 0 0 0.508 2500 0
7 1 3.048 0 0 0.508 2500 0
8 1 3.556 0 0 0.508 2500 0
9 1 4.064 0 0 0.508 2500 0
10 1 4.572 0 0 0.508 2500 0
11 1 5.08 0 0 0.508 2500 0
