# vtk DataFile Version 2.0
f0_shell
ASCII
DATASET POLYDATA
POINTS 3650 float
-1.84 -0.08 -4.19355 -1.68 -0.08 -4.19355 -1.68 0.08 -4.19355 -1.84 0.08
-4.19355 -1.52 -0.08 -4.19355 -1.52 0.08 -4.19355 -1.36 -0.08 -4.19355
-1.36 0.08 -4.19355 -1.2 -0.08 -4.19355 -1.2 0.08 -4.19355 -2
-1.2 -2.09677 -2 -1.2 -1.93548 -1.84 -1.2 -1.93548 -1.84 -1.2
-2.09677 -1.04 -0.08 -4.19355 -1.04 0.08 -4.19355 -1.68 -1.2 -1.93548
-1.68 -1.2 -2.09677 -0.88 -0.08 -4.19355 -0.88 0.08 -4.19355 -1.52
-1.2 -1.93548 -1.52 -1.2 -2.09677 -0.72 -0.08 -4.19355 -0.72 0.08
-4.19355 -1.36 -1.2 -1.93548 -1.36 -1.2 -2.09677 -0.56 -0.08 -4.19355
-0.56 0.08 -4.19355 -1.2 -1.2 -1.93548 -1.2 -1.2 -2.09677 -0.4
-0.08 -4.19355 -0.4 0.08 -4.19355 -1.04 -1.2 -1.93548 -1.04 -1.2
-2.09677 -0.24 -0.08 -4.19355 -0.24 0.08 -4.19355 -0.88 -1.2 -1.93548
-0.88 -1.2 -2.09677 -0.08 -0.08 -4.19355 -0.08 0.08 -4.19355 -0.72
-1.2 -1.93548 -0.72 -1.2 -2.09677 0.08 -0.08 -4.19355 0.08 0.08
-4.19355 -0.56 -1.2 -1.93548 -0.56 -1.2 -2.09677 0.24 -0.08 -4.19355
0.24 0.08 -4.19355 -0.4 -1.2 -1.93548 -0.4 -1.2 -2.09677 -0.24
-1.2 -1.93548 -0.24 -1.2 -2.09677 -0.08 -1.2 -1.93548 -0.08 -1.2
-2.09677 0.08 -1.2 -1.93548 0.08 -1.2 -2.09677 0.24 0.88 -2.74194
0.24 1.04 -2.74194 0.24 1.04 -2.58065 0.24 0.88 -2.58065 0.24
-1.2 -1.93548 0.24 -1.2 -2.09677 0.24 0.24 3.06452 0.24 0.4
3.06452 0.24 0.4 3.22581 0.24 0.24 3.22581 -2 0.08 -4.19355
-1.84 0.24 -4.19355 -2 0.24 -4.19355 -1.68 0.24 -4.19355 -1.52
0.24 -4.19355 -1.36 0.24 -4.19355 0.24 -0.24 -3.22581 0.24 -0.08
-3.22581 0.24 -0.08 -3.06452 0.24 -0.24 -3.06452 -1.2 0.24 -4.19355
-1.04 0.24 -4.19355 -0.88 0.24 -4.19355 -2 1.2 -2.74194 -2
1.2 -2.58065 -1.84 1.2 -2.58065 -1.84 1.2 -2.74194 -0.72 0.24
-4.19355 0.24 -0.88 2.58065 0.24 -0.72 2.58065 0.24 -0.72 2.74194
0.24 -0.88 2.74194 -0.56 0.24 -4.19355 -1.68 1.2 -2.58065 -1.68
1.2 -2.74194 -2 -1.2 -3.70968 -2 -1.2 -3.54839 -1.84 -1.2
-3.54839 -1.84 -1.2 -3.70968 -0.4 0.24 -4.19355 -1.68 -1.2 -3.54839
-1.68 -1.2 -3.70968 -0.24 0.24 -4.19355 -1.52 1.2 -2.58065 -1.52
1.2 -2.74194 -1.52 -1.2 -3.54839 -1.52 -1.2 -3.70968 -0.08 0.24
-4.19355 -1.36 -1.2 -3.54839 -1.36 -1.2 -3.70968 0.08 0.24 -4.19355
-1.2 -1.2 -3.54839 -1.2 -1.2 -3.70968 0.24 0.24 -4.19355 -1.36
1.2 -2.58065 -1.36 1.2 -2.74194 -1.04 -1.2 -3.54839 -1.04 -1.2
-3.70968 -0.88 -1.2 -3.54839 -0.88 -1.2 -3.70968 -1.2 1.2 -2.58065
-1.2 1.2 -2.74194 -0.72 -1.2 -3.54839 -0.72 -1.2 -3.70968 -0.56
-1.2 -3.54839 -0.56 -1.2 -3.70968 -1.04 1.2 -2.58065 -1.04 1.2
-2.74194 -0.4 -1.2 -3.54839 -0.4 -1.2 -3.70968 -0.24 -1.2 -3.54839
-0.24 -1.2 -3.70968 -0.08 -1.2 -3.54839 -0.08 -1.2 -3.70968 -0.88
1.2 -2.58065 -0.88 1.2 -2.74194 0.08 -1.2 -3.54839 0.08 -1.2
-3.70968 0.24 -1.2 -3.54839 0.24 -1.2 -3.70968 -0.72 1.2 -2.58065
-0.72 1.2 -2.74194 -1.84 0.4 -4.19355 -2 0.4 -4.19355 -0.56
1.2 -2.58065 -0.56 1.2 -2.74194 -1.68 0.4 -4.19355 -1.52 0.4
-4.19355 -0.4 1.2 -2.58065 -0.4 1.2 -2.74194 -1.36 0.4 -4.19355
-1.2 0.4 -4.19355 -0.24 1.2 -2.58065 -0.24 1.2 -2.74194 -1.04
0.4 -4.19355 0.24 -1.04 -2.09677 0.24 -1.04 -1.93548 -0.88 0.4
-4.19355 -0.72 0.4 -4.19355 -0.08 1.2 -2.58065 -0.08 1.2 -2.74194
-0.56 0.4 -4.19355 -0.4 0.4 -4.19355 0.08 1.2 -2.58065 0.08
1.2 -2.74194 -0.24 0.4 -4.19355 0.24 0.56 3.06452 0.24 0.56
3.22581 -0.08 0.4 -4.19355 0.24 1.2 -2.74194 0.24 1.2 -2.58065
0.08 0.4 -4.19355 0.24 0.4 -4.19355 0.24 0.08 -3.22581 0.24
0.08 -3.06452 0.24 -0.56 2.58065 0.24 -0.56 2.74194 -1.84 0.56
-4.19355 -2 0.56 -4.19355 -1.68 0.56 -4.19355 -1.52 0.56 -4.19355
-1.36 0.56 -4.19355 -1.2 0.56 -4.19355 -1.04 0.56 -4.19355 -0.88
0.56 -4.19355 -0.72 0.56 -4.19355 -0.56 0.56 -4.19355 -0.4 0.56
-4.19355 0.24 -1.04 -3.70968 0.24 -1.04 -3.54839 -0.24 0.56 -4.19355
-0.08 0.56 -4.19355 0.08 0.56 -4.19355 0.24 0.56 -4.19355 0.24
-0.88 -2.09677 0.24 -0.88 -1.93548 0.24 0.72 3.06452 0.24 0.72
3.22581 -1.84 0.72 -4.19355 -2 0.72 -4.19355 -1.68 0.72 -4.19355
-1.52 0.72 -4.19355 -1.36 0.72 -4.19355 -1.2 0.72 -4.19355 -1.04
0.72 -4.19355 -0.88 0.72 -4.19355 -0.72 0.72 -4.19355 0.24 0.24
-3.22581 0.24 0.24 -3.06452 -0.56 0.72 -4.19355 -0.4 0.72 -4.19355
-0.24 0.72 -4.19355 0.24 -0.4 2.58065 0.24 -0.4 2.74194 -0.08
0.72 -4.19355 0.08 0.72 -4.19355 0.24 0.72 -4.19355 0.24 -0.88
-3.70968 0.24 -0.88 -3.54839 -1.84 0.88 -4.19355 -2 0.88 -4.19355
-1.68 0.88 -4.19355 -1.52 0.88 -4.19355 -1.36 0.88 -4.19355 0.24
-0.72 -2.09677 0.24 -0.72 -1.93548 -1.2 0.88 -4.19355 -1.04 0.88
-4.19355 -0.88 0.88 -4.19355 -0.72 0.88 -4.19355 -0.56 0.88 -4.19355
-0.4 0.88 -4.19355 -0.24 0.88 -4.19355 -0.08 0.88 -4.19355 0.08
0.88 -4.19355 0.24 0.88 -4.19355 0.24 0.88 3.06452 0.24 0.88
3.22581 0.24 0.4 -3.22581 0.24 0.4 -3.06452 0.24 -0.24 2.58065
0.24 -0.24 2.74194 -1.84 1.04 -4.19355 -2 1.04 -4.19355 -1.68
1.04 -4.19355 -1.52 1.04 -4.19355 -1.36 1.04 -4.19355 -1.2 1.04
-4.19355 -1.04 1.04 -4.19355 -0.88 1.04 -4.19355 -0.72 1.04 -4.19355
0.24 -0.72 -3.70968 0.24 -0.72 -3.54839 -0.56 1.04 -4.19355 -0.4
1.04 -4.19355 -0.24 1.04 -4.19355 -0.08 1.04 -4.19355 0.08 1.04
-4.19355 0.24 1.04 -4.19355 -2 -1.2 3.70968 -2 -1.2 3.87097
-1.84 -1.2 3.87097 -1.84 -1.2 3.70968 -1.68 -1.2 3.87097 -1.68
-1.2 3.70968 -1.52 -1.2 3.87097 -1.52 -1.2 3.70968 0.24 -0.56
-2.09677 0.24 -0.56 -1.93548 -1.36 -1.2 3.87097 -1.36 -1.2 3.70968
-1.2 -1.2 3.87097 -1.2 -1.2 3.70968 -1.04 -1.2 3.87097 -1.04
-1.2 3.70968 -0.88 -1.2 3.87097 -0.88 -1.2 3.70968 -0.72 -1.2
3.87097 -0.72 -1.2 3.70968 -0.56 -1.2 3.87097 -0.56 -1.2 3.70968
-0.4 -1.2 3.87097 -0.4 -1.2 3.70968 -1.84 1.2 -4.19355 -2
1.2 -4.19355 -0.24 -1.2 3.87097 -0.24 -1.2 3.70968 -1.68 1.2
-4.19355 -0.08 -1.2 3.87097 -0.08 -1.2 3.70968 -1.52 1.2 -4.19355
0.08 -1.2 3.87097 0.08 -1.2 3.70968 0.24 1.04 3.06452 0.24
1.04 3.22581 -1.36 1.2 -4.19355 0.24 -1.2 3.87097 0.24 -1.2
3.70968 -1.2 1.2 -4.19355 -1.04 1.2 -4.19355 -0.88 1.2 -4.19355
-0.72 1.2 -4.19355 -0.56 1.2 -4.19355 -0.4 1.2 -4.19355 -0.24
1.2 -4.19355 0.24 0.56 -3.22581 0.24 0.56 -3.06452 -0.08 1.2
-4.19355 0.08 1.2 -4.19355 0.24 1.2 -4.19355 0.24 -0.08 2.58065
0.24 -0.08 2.74194 -2 1.2 3.06452 -2 1.2 3.22581 -1.84
1.2 3.22581 -1.84 1.2 3.06452 -1.68 1.2 3.22581 -1.68 1.2
3.06452 -2 -1.2 2.09677 -2 -1.2 2.25806 -1.84 -1.2 2.25806
-1.84 -1.2 2.09677 -1.68 -1.2 2.25806 -1.68 -1.2 2.09677 -1.52
1.2 3.22581 -1.52 1.2 3.06452 -1.52 -1.2 2.25806 -1.52 -1.2
2.09677 0.24 -0.56 -3.70968 0.24 -0.56 -3.54839 -1.36 -1.2 2.25806
-1.36 -1.2 2.09677 -1.2 -1.2 2.25806 -1.2 -1.2 2.09677 -1.36
1.2 3.22581 -1.36 1.2 3.06452 -1.04 -1.2 2.25806 -1.04 -1.2
2.09677 -0.88 -1.2 2.25806 -0.88 -1.2 2.09677 -1.2 1.2 3.22581
-1.2 1.2 3.06452 -0.72 -1.2 2.25806 -0.72 -1.2 2.09677 -0.56
-1.2 2.25806 -0.56 -1.2 2.09677 -1.04 1.2 3.22581 -1.04 1.2
3.06452 -0.4 -1.2 2.25806 -0.4 -1.2 2.09677 -0.24 -1.2 2.25806
-0.24 -1.2 2.09677 -0.08 -1.2 2.25806 -0.08 -1.2 2.09677 -0.88
1.2 3.22581 -0.88 1.2 3.06452 0.08 -1.2 2.25806 0.08 -1.2
2.09677 0.24 -0.4 -2.09677 0.24 -0.4 -1.93548 0.24 -1.2 2.25806
0.24 -1.2 2.09677 -0.72 1.2 3.22581 -0.72 1.2 3.06452 -0.56
1.2 3.22581 -0.56 1.2 3.06452 -0.4 1.2 3.22581 -0.4 1.2
3.06452 -0.24 1.2 3.22581 -0.24 1.2 3.06452 0.24 -1.04 3.70968
0.24 -1.04 3.87097 -0.08 1.2 3.22581 -0.08 1.2 3.06452 0.08
1.2 3.22581 0.08 1.2 3.06452 0.24 1.2 3.06452 0.24 1.2
3.22581 -2 -1.04 -3.87097 -2 -0.96 -3.87097 -2 -0.96 -3.95161
-2 -1.04 -3.95161 -2 -0.88 -3.87097 -2 -0.88 -3.95161 -2
-0.88 -4.03226 -2 -0.96 -4.03226 -2 -0.8 -3.87097 -2 -0.8
-3.95161 -2 -0.72 -3.87097 -2 -0.72 -3.95161 0.24 0.72 -3.22581
0.24 0.72 -3.06452 -2 -0.72 -4.03226 -2 -0.8 -4.03226 -2
-0.64 -3.87097 -2 -0.64 -3.95161 -2 -0.56 -3.87097 -2 -0.56
-3.95161 -2 -0.56 -4.03226 -2 -0.64 -4.03226 -2 -0.48 -3.87097
-2 -0.48 -3.95161 -2 -0.4 -3.87097 -2 -0.4 -3.95161 -2
-0.4 -4.03226 -2 -0.48 -4.03226 -2 -0.32 -3.87097 -2 -0.32
-3.95161 -2 -0.24 -3.87097 -2 -0.24 -3.95161 -2 -0.24 -4.03226
-2 -0.32 -4.03226 0.24 0.08 2.58065 0.24 0.08 2.74194 -2
-0.16 -3.87097 -2 -0.16 -3.95161 -2 -0.08 -3.87097 -2 -0.08
-3.95161 -2 -0.08 -4.03226 -2 -0.16 -4.03226 -2 0 -3.87097
-2 0 -3.95161 -2 0.08 -3.87097 -2 0.08 -3.95161 -2
0.08 -4.03226 -2 0 -4.03226 -2 0.16 -3.87097 -2 0.16
-3.95161 -2 0.24 -3.87097 -2 0.24 -3.95161 -2 0.24 -4.03226
-2 0.16 -4.03226 -2 0.32 -3.87097 -2 0.32 -3.95161 -2
0.4 -3.87097 -2 0.4 -3.95161 -2 0.4 -4.03226 -2 0.32
-4.03226 -2 0.48 -3.87097 -2 0.48 -3.95161 -2 0.56 -3.87097
-2 0.56 -3.95161 -2 0.56 -4.03226 -2 0.48 -4.03226 -2
0.64 -3.87097 -2 0.64 -3.95161 -2 0.72 -3.87097 -2 0.72
-3.95161 -2 0.72 -4.03226 -2 0.64 -4.03226 -2 0.8 -3.87097
-2 0.8 -3.95161 -2 0.88 -3.87097 -2 0.88 -3.95161 -2
0.88 -4.03226 -2 0.8 -4.03226 -2 0.96 -3.87097 -2 0.96
-3.95161 -2 1.04 -3.87097 -2 1.04 -3.95161 0.24 -0.4 -3.70968
0.24 -0.4 -3.54839 -2 1.04 -4.03226 -2 0.96 -4.03226 -2
-1.04 -3.70968 -2 -0.96 -3.70968 -2 -0.96 -3.79032 -2 -1.04
-3.79032 -2 -0.88 -3.70968 -2 -0.88 -3.79032 -2 -0.8 -3.70968
-2 -0.8 -3.79032 -2 -0.72 -3.70968 -2 -0.72 -3.79032 -2
-0.64 -3.70968 -2 -0.64 -3.79032 -2 -0.56 -3.70968 -2 -0.56
-3.79032 -2 -0.48 -3.70968 -2 -0.48 -3.79032 -2 -0.4 -3.70968
-2 -0.4 -3.79032 -2 -0.32 -3.70968 -2 -0.32 -3.79032 -2
-0.24 -3.70968 -2 -0.24 -3.79032 -2 -0.16 -3.70968 -2 -0.16
-3.79032 -2 -0.08 -3.70968 -2 -0.08 -3.79032 -2 0 -3.70968
-2 0 -3.79032 -2 0.08 -3.70968 -2 0.08 -3.79032 -2
0.16 -3.70968 -2 0.16 -3.79032 -2 0.24 -3.70968 -2 0.24
-3.79032 -2 0.32 -3.70968 -2 0.32 -3.79032 -2 0.4 -3.70968
-2 0.4 -3.79032 0.24 -1.04 2.09677 0.24 -1.04 2.25806 -2
0.48 -3.70968 -2 0.48 -3.79032 -2 0.56 -3.70968 -2 0.56
-3.79032 0.24 -0.24 -2.09677 0.24 -0.24 -1.93548 -2 0.64 -3.70968
-2 0.64 -3.79032 -2 0.72 -3.70968 -2 0.72 -3.79032 -2
0.8 -3.70968 -2 0.8 -3.79032 -2 0.88 -3.70968 -2 0.88
-3.79032 -2 0.96 -3.70968 -2 0.96 -3.79032 -2 1.04 -3.70968
-2 1.04 -3.79032 0.24 -0.88 3.70968 0.24 -0.88 3.87097 -2
-1.04 -3.54839 -2 -0.96 -3.54839 -2 -0.96 -3.62903 -2 -1.04
-3.62903 -2 -0.88 -3.54839 -2 -0.88 -3.62903 -2 -0.8 -3.54839
-2 -0.8 -3.62903 -2 -0.72 -3.54839 -2 -0.72 -3.62903 -2
-0.64 -3.54839 -2 -0.64 -3.62903 -2 -0.56 -3.54839 -2 -0.56
[...]
CELL_DATA 3594
FIELD attributes 1
faceID 1 3594 int
8193 8196 8199 8202 40973 8205 40976 8208 40979 8211 40982
8214 40985 8217 40988 8220 40991 8223 40994 8226 40997
8229 41000 41003 41006 41009 32819 41012 106557 8264 8267
8270 8273 24660 8276 8279 8282 32859 8285 98398 8288
32866 16483 8291 16486 8294 32873 16489 8297 16492 8300
16495 8303 32880 16498 16501 32887 16504 16507 32894 16510
16513 16516 32901 16519 16522 32908 8338 32915 8341 8344
32922 8347 8350 32929 8353 41124 8356 8359 32936 8362
8365 32943 8368 106673 8371 32949 32950 8374 8377 24776
98514 8412 8415 8418 8421 8424 8427 8430 8433 8436
8439 16634 8442 8445 8448 8451 41223 106789 8486 8489
8492 8495 8498 8501 8504 8507 24892 8510 8513 8516
98630 8519 8522 8525 16733 8560 8563 8566 8569 41339
8572 8575 8578 8581 8584 8587 8590 8593 8596 8599
106905 25008 98746 8634 8637 8640 8643 8646 8649 8652
8655 16849 8658 8661 8664 8667 8670 8673 115175 115178
115181 41455 115184 115187 115190 115193 115196 115199 115202 8708
115205 8711 115208 8714 115211 107021 8717 115214 8720 8723
8726 8729 8732 8735 8738 25124 8741 8744 8747 98862
107061 107068 90685 90688 107075 90691 16965 90694 90697 107082
90700 90703 107089 90706 90709 107096 90712 90715 90718 107103
90721 41571 90724 107110 107117 107124 107131 115326 107138 107145
107151 107152 213652 213653 213654 213655 213656 25240 213657 213658
213659 213660 213661 213662 213663 213664 213665 213666 98978 213667
213668 213669 213670 213671 213672 213673 213674 213675 213676 213677
213678 213679 213680 213681 213682 213683 213684 213685 213686 213687
213688 213689 17081 213690 213691 213692 213693 213694 213695 213696
213697 213698 213699 213700 213701 213702 213703 213704 213705 213706
213707 213708 213709 213710 213711 213712 213713 213714 213715 213716
90836 213717 213718 213719 41687 213720 213721 213722 213723 213724
213725 213726 213727 213728 213729 115425 213730 213731 213732 213733
213734 213735 213736 213737 213738 213739 213740 213741 213742 213743
213744 213745 213746 213747 213748 213749 213750 213751 213752 213753
213754 213755 213756 213757 213758 213759 213760 213761 213762 213763
213764 213765 213766 213767 213768 213769 213770 213771 213772 25356
213773 213774 213775 213776 213777 213778 213779 213780 213781 213782
99094 213783 213784 213785 213786 213787 213788 213789 213790 213791
213792 213793 213794 213795 213796 213797 213798 213799 213800 213801
213802 213803 213804 213805 17197 213806 213807 213808 213809 213810
213811 213812 213813 213814 213815 90935 213816 213817 213818 213819
213820 213821 213822 213823 213824 213825 213826 213827 213828 213829
213830 213831 213832 213833 213834 213835 41803 213836 213837 213838
213839 213840 213841 213842 213843 213844 213845 115541 213846 213847
213848 213849 213850 33626 213851 213852 213853 33629 213854 213855
213856 33632 213857 213858 213859 33635 213860 213861 213862 33638
213863 213864 213865 33641 213866 213867 213868 33644 213869 213870
213871 33647 213872 213873 213874 33650 213875 213876 213877 33653
213878 213879 213880 33656 213881 213882 213883 33659 213884 213885
213886 33662 213887 213888 25472 213889 33665 213890 213891 213892
213893 213894 213895 213896 213897 213898 99210 213899 213900 213901
213902 213903 213904 213905 213906 213907 213908 213909 213910 213911
213912 213913 213914 213915 213916 213917 213918 213919 213920 213921
17313 213922 213923 213924 213925 213926 213927 213928 25512 213929
213930 213931 91051 213932 213933 213934 213935 25519 213936 213937
213938 213939 213940 213941 213942 25526 213943 213944 213945 213946
213947 213948 213949 25533 213950 213951 41919 213952 213953 213954
213955 213956 25540 213957 213958 213959 213960 213961 115657 213962
213963 25547 213964 213965 213966 213967 213968 213969 213970 25554
213971 213972 213973 213974 213975 213976 213977 25561 213978 213979
213980 213981 213982 213983 213984 25568 213985 213986 213987 213988
213989 213990 213991 25575 213992 213993 213994 213995 213996 213997
213998 25582 213999 214000 214001 33777 214002 214003 214004 214005
25589 214006 214007 214008 214009 214010 214011 214012 25596 214013
214014 99326 214015 214016 214017 214018 25602 214019 25603 214020
214021 214022 214023 214024 214025 214026 214027 214028 214029 214030
214031 214032 214033 214034 214035 214036 214037 17429 214038 214039
214040 214041 214042 214043 214044 214045 214046 214047 91167 214048
214049 214050 214051 214052 214053 214054 214055 214056 214057 214058
214059 214060 214061 214062 214063 214064 214065 214066 214067 42035
214068 214069 214070 214071 214072 214073 214074 214075 214076 214077
115773 214078 214079 214080 214081 214082 214083 214084 214085 214086
214087 214088 214089 214090 214091 214092 214093 214094 214095 214096
214097 214098 214099 214100 33876 214101 214102 214103 214104 214105
214106 214107 214108 214109 214110 214111 214112 214113 214114 214115
214116 214117 214118 214119 214120 214121 214122 214123 214124 214125
214126 214127 214128 214129 214130 99442 214131 214132 214133 214134
214135 214136 214137 214138 214139 214140 214141 214142 214143 214144
214145 214146 214147 214148 214149 214150 214151 214152 214153 17545
214154 214155 214156 214157 214158 214159 214160 214161 214162 214163
91283 214164 214165 214166 214167 214168 214169 214170 214171 214172
214173 214174 214175 214176 214177 214178 214179 214180 214181 214182
214183 42151 214184 214185 214186 214187 214188 214189 214190 214191
214192 214193 115889 214194 214195 214196 214197 214198 214199 214200
214201 214202 214203 214204 214205 214206 214207 214208 214209 214210
214211 214212 214213 214214 214215 214216 33992 214217 214218 214219
214220 214221 214222 9422 214223 214224 214225 9425 214226 214227
214228 9428 214229 214230 214231 9431 214232 214233 214234 9434
214235 214236 214237 9437 214238 214239 214240 9440 214241 214242
214243 9443 214244 214245 214246 99558 9446 214247 214248 214249
9449 214250 214251 214252 9452 214253 214254 214255 9455 214256
214257 214258 9458 214259 214260 214261 9461 214262 214263 214264
214265 214266 214267 214268 214269 17661 214270 214271 214272 214273
214274 214275 214276 214277 214278 214279 91399 214280 214281 214282
214283 214284 214285 214286 214287 214288 214289 214290 214291 214292
214293 214294 214295 214296 214297 214298 214299 42267 214300 214301
214302 214303 214304 214305 214306 214307 214308 214309 116005 214310
214311 214312 214313 214314 214315 214316 214317 214318 214319 214320
214321 214322 214323 214324 107828 214325 214326 214327 107831 214328
214329 214330 107834 214331 214332 34108 214333 107837 214334 9534
214335 214336 107840 214337 214338 214339 107843 214340 214341 214342
107846 214343 214344 214345 107849 214346 214347 214348 107852 214349
214350 214351 107855 214352 214353 214354 107858 214355 214356 214357
107861 214358 214359 214360 107864 214361 214362 99674 214363 107867
214364 214365 214366 214367 214368 214369 214370 214371 214372 214373
214374 214375 214376 214377 214378 214379 214380 214381 214382 214383
214384 214385 17777 214386 214387 214388 214389 214390 214391 214392
214393 214394 214395 91515 214396 214397 214398 214399 214400 214401
214402 99714 214403 214404 214405 214406 214407 214408 214409 99721
214410 214411 214412 214413 214414 214415 42383 214416 99728 214417
214418 214419 214420 214421 214422 214423 99735 214424 214425 116121
214426 214427 214428 214429 214430 99742 214431 214432 214433 214434
214435 214436 214437 99749 214438 214439 214440 214441 214442 214443
214444 99756 214445 214446 214447 9647 214448 34224 214449 214450
214451 99763 214452 214453 214454 214455 214456 214457 214458 99770
214459 214460 214461 214462 214463 214464 214465 99777 214466 214467
214468 214469 214470 214471 214472 99784 214473 214474 214475 107979
214476 214477 214478 214479 99791 214480 214481 214482 214483 214484
214485 214486 99798 214487 214488 214489 214490 214491 214492 99804
214493 99805 214494 214495 214496 214497 214498 214499 214500 214501
17893 214502 214503 214504 214505 214506 214507 214508 214509 214510
214511 91631 214512 214513 214514 214515 214516 214517 214518 214519
214520 214521 214522 214523 214524 214525 214526 214527 214528 214529
214530 214531 42499 214532 214533 214534 214535 214536 214537 214538
214539 214540 214541 116237 214542 214543 214544 214545 214546 214547
214548 214549 214550 214551 214552 214553 214554 214555 214556 214557
214558 214559 214560 9760 214561 214562 214563 214564 34340 214565
214566 214567 214568 214569 214570 214571 214572 214573 214574 108078
214575 214576 214577 214578 214579 214580 214581 214582 214583 214584
214585 214586 214587 214588 214589 214590 214591 214592 214593 214594
214595 214596 214597 214598 214599 214600 214601 214602 214603 214604
214605 214606 214607 214608 214609 214610 214611 214612 214613 214614
214615 214616 214617 18009 214618 214619 214620 214621 214622 214623
214624 214625 214626 214627 91747 214628 214629 214630 214631 214632
214633 214634 214635 214636 214637 214638 214639 214640 214641 214642
214643 214644 214645 214646 214647 42615 214648 214649 214650 214651
214652 214653 214654 214655 214656 214657 116353 214658 214659 214660
214661 214662 214663 214664 214665 9873 34456 42655 108194 42662
26279 26282 42669 26285 26288 26291 42676 26294 26297 42683
26300 26303 42690 26306 26309 26312 42697 26315 18125 26318
42704 91863 42711 42718 42725 42732 42739 116469 18165 42745
42746 18172 9986 18179 18186 34572 18193 108310 18200 18207
18214 18221 18228 18235 26430 18242 18249 91979 18255 18256
116585 10099 34688 108426 26529 92095 116701 10212 34804 108542
26645 92211 116817 10325 34920 206957 206958 206959 206960 206961
206962 108658 206963 206964 206965 206966 206967 206968 206969 116857
206970 206971 116864 100481 100484 206982 206983 116871 100487 206984
206985 26761 206986 100490 206987 206988 206989 100493 206990 116878
206991 206992 100496 206993 206994 206995 100499 206996 116885 100502
100505 116892 100508 207007 100511 207008 207009 207010 100514 207011
116899 207012 207013 100517 207014 207015 92327 207016 100520 207017
207018 116906 207019 207020 207021 116913 207032 116920 207033 207034
207035 207036 207037 207038 207039 116927 207040 207041 207042 207043
207044 207045 207046 116934 10438 116941 92367 207057 207058 207059
116947 207060 116948 207061 207062 92374 207063 207064 207065 207066
207067 207068 35036 207069 92381 207070 207071 92388 108774 207082
207083 92395 207084 207085 207086 207087 207088 207089 207090 92402
207091 207092 207093 207094 207095 207096 92409 26877 92416 207107
207108 207109 207110 207111 92423 207112 207113 207114 207115 207116
207117 207118 92430 207119 207120 207121 92437 100632 207132 92444
207133 207134 207135 207136 207137 207138 207139 92451 207140 207141
207142 207143 207144 207145 92457 207146 92458 207157 207158 207159
10551 207160 207161 207162 207163 207164 207165 207166 207167 207168
207169 207170 207171 207182 207183 207184 35152 207185 207186 207187
207188 207189 207190 207191 207192 207193 207194 108890 207195 207196
84323 84326 207207 207208 207209 84329 207210 207211 207212 84332
207213 207214 207215 84335 207216 207217 26993 207218 84338 207219
207220 207221 84341 84344 100731 84347 84350 207232 207233 84353
207234 207235 207236 84356 207237 207238 207239 84359 207240 207241
207242 84362 207243 207244 207245 207246 207257 207258 207259 207260
207261 207262 43422 207263 207264 207265 43425 207266 207267 207268
43428 207269 207270 207271 43431 10664 43434 84397 43437 84400
43440 207282 207283 84403 43443 207284 207285 207286 84406 43446
207287 207288 207289 84409 43449 207290 207291 207292 84412 43452
207293 207294 207295 84415 43455 207296 84418 43458 35268 84421
43461 84424 207307 84427 207308 207309 207310 109006 84430 207311
207312 207313 84433 207314 207315 207316 84436 207317 207318 207319
207320 207321 27109 43497 43500 35308 100847 43503 43506 35315
18932 43509 84471 18935 43512 84474 35322 18938 43515 84477
18941 43518 84480 18944 43521 35329 84483 18947 43524 84486
18950 43527 35336 84489 18953 43530 84492 18956 43533 43534
84495 35343 18959 43536 84498 18962 84501 18965 35350 84504
18968 10777 84507 18971 35357 84510 35364 35371 35378 43571
35385 43578 35392 84545 43585 109122 84548 35398 84551 35399
43592 84554 84557 43599 84560 84563 84566 43606 84569 27225
84572 43613 84575 84578 100963 43620 84581 84584 43627 43634
43641 43648 43655 10890 84619 19083 43660 84622 43662 84625
84628 84631 84634 84637 84640 84643 84646 84649 84652 84655
43697 84658 109238 43704 43711 43718 43725 27341 43732 84693
101079 84696 84699 43739 84702 84705 43746 84708 84711 43753
84714 84717 19182 84720 43760 84723 84726 43767 84729 11003
84732 43774 43781 43786 43788 84767 11039 84770 11042 84773
11045 84776 11048 109354 84779 11051 84782 11054 43823 84785
11057 84788 11060 43830 84791 11063 84794 11066 84797 43837
11069 84800 11072 27457 84803 11075 43844 11077 84806 11078
101195 43851 43858 43865 43872 19298 43879 84841 84844 43886
84847 84850 84853 43893 117624 84856 117627 84859 43900 117630
84862 117633 84865 43907 117636 84868 117639 84871 43912 117642
84874 43914 117645 84877 117648 84880 117651 117654 117657 117660
109470 117663 43949 84915 43956 27573 84918 84921 43963 84924
101311 84927 84930 43970 84933 109510 84936 43977 84939 109517
93134 84942 43984 93137 84945 109524 93140 84948 19414 93143
84951 43991 93146 84954 109531 93149 43998 93152 109538 93155
44005 93158 109545 93161 93164 44012 93167 109552 93170 44019
93173 109559 44026 84989 109566 84992 44033 84995 109573 84998
44038 44040 85001 207882 207883 207884 109580 85004 207885 207886
207887 117775 85007 207888 207889 207890 85010 207891 109587 207892
207893 85013 207894 207895 207896 85016 109594 85019 85022 109600
109601 85025 207907 207908 85028 207909 207910 207911 207912 207913
27689 207914 207915 44075 207916 207917 207918 207919 207920 207921
44082 101427 44089 207932 207933 207934 207935 207936 44096 207937
207938 207939 207940 207941 207942 207943 85063 44103 207944 207945
207946 85066 19530 85069 44110 85072 85075 207957 44117 207958
85078 207959 207960 207961 85081 207962 207963 207964 85084 44124
207965 207966 207967 85087 207968 207969 207970 85090 207971 44131
93285 85093 85096 44138 85099 207982 85102 207983 207984 207985
44145 207986 117874 207987 207988 207989 207990 207991 207992 44152
207993 207994 207995 207996 44159 44164 44166 208007 208008 208009
208010 208011 208012 208013 208014 208015 208016 208017 85137 208018
208019 208020 85140 208021 85143 85146 85149 27805 208032 85152
208033 208034 208035 85155 208036 208037 208038 85158 208039 101543
208040 208041 85161 44201 208042 208043 208044 85164 208045 208046
85167 44208 85170 85173 44215 85176 208057 208058 208059 208060
208061 208062 44222 19646 208063 208064 208065 208066 208067 208068
208069 44229 208070 208071 93384 44236 208082 208083 44243 208084
208085 208086 208087 208088 208089 208090 44250 208091 85211 208092
208093 208094 85214 208095 208096 85217 44257 85220 117990 85223
44264 85226 208107 36075 208108 208109 85229 208110 36078 208111
44271 208112 85232 208113 36081 208114 208115 85235 208116 36084
208117 208118 85238 44278 208119 36087 208120 208121 85241 36090
85244 44285 36093 85247 36096 85250 44290 36099 208132 44292
208133 208134 36102 208135 208136 208137 36105 208138 208139 208140
36108 208141 208142 208143 36111 208144 208145 27921 208146 36114
101659 208157 208158 208159 208160 208161 208162 208163 208164 208165
85285 208166 208167 44327 208168 85288 208169 208170 208171 85291
85294 44334 85297 19762 85300 44341 208182 208183 85303 208184
208185 27961 208186 85306 208187 208188 93500 44348 208189 85309
208190 208191 208192 85312 27968 208193 208194 208195 85315 44355
208196 85318 27975 85321 44362 85324 27982 208207 208208 208209
44369 208210 208211 208212 208213 27989 208214 208215 208216 44376
208217 208218 118106 208219 208220 27996 208221 44383 28003 44390
208232 208233 208234 28010 208235 208236 208237 44397 208238 208239
85359 208240 208241 28017 208242 85362 208243 208244 44404 208245
85365 208246 85368 28024 85371 44411 85374 28031 44416 85377
44418 36226 85380 28038 85383 85386 85389 28045 101775 85392
85395 28051 28052 85398 44453 19878 44460 93616 44467 44474
44481 44488 118222 44495 44502 44509 44516 36325 11754 44523
11757 11760 44530 11763 11766 44537 11769 11772 44542 11775
44544 11778 101891 11781 11784 11787 11790 11793 19994 44579
93732 44586 44593 44600 44607 118338 44614 44621 44628 36441
44635 44642 44649 44656 102007 44663 44668 44670 11905 20110
93848 44705 44712 44719 118454 44726 44733 44740 110277 110280
110283 44747 36557 110286 110289 44754 110292 110295 11991 44761
110298 110301 110304 44768 110307 110310 44775 110313 102123 110316
44782 44789 44794 44796 20226 93964 102163 102170 44831 102177
44838 102184 118570 44845 102191 44852 102198 44859 102205 12094
36673 44866 102212 44873 102219 44880 102226 44887 102233 110428
44894 102240 44901 102247 44908 102253 102254 44915 20342 44920
44922 94080 44957 118686 44964 12197 44971 44978 36789 44985
110527 44992 44999 45006 45013 45020 45027 45034 20458 45041
94196 45046 45048 12300 118802 45083 45090 45097 36905 45104
110643 45111 28728 86073 28731 86076 45118 28734 86079 28737
86082 28740 86085 45125 28743 86088 28746 86091 45132 28749
86094 28752 86097 45139 28755 86100 28758 86103 28761 86106
45146 28764 86109 20574 28767 86112 45153 94312 45160 45167
12403 45172 45174 118918 20614 20621 20628 45208 45209 45211
20635 45212 37021 45214 45215 45217 45218 20642 45220 45221
110759 45223 45224 86185 20649 45226 45227 45229 45230 45232
20656 45233 45235 45236 45238 45239 20663 45241 45242 45244
45245 45246 20670 45247 45248 20677 20684 28879 20691 20698
12506 94428 20704 20705 119034 37137 86298 110875 28978 12609
94544 119150 37253 86411 110991 29094 12712 94660 119266 37369
86524 111107 119306 12815 119313 102930 102933 119320 102936 29210
102939 102942 119327 102945 102948 119334 102951 102954 119341 102957
102960 102963 119348 102966 94776 102969 119355 119362 119369 119376
119383 119390 94816 119396 119397 94823 86637 37485 94830 94837
12918 111223 94844 94851 94858 29326 94865 94872 94879 94886
103081 94893 94900 94906 94907 13021 86750 37601 111339 29442
103180 13124 86863 37717 111455 29558 37757 103296 37764 21381
21384 37771 21387 21390 21393 37778 21396 21399 37785 21402
21405 37792 21408 21411 21414 37799 21417 13227 21420 37806
37813 37820 86976 37827 37834 37841 111571 13267 37847 37848
13274 13281 13288 29674 13295 103412 13302 13309 13316 13323
13330 13337 21532 13344 13351 13357 13358 87089 111687 29790
103528 21631 87202 111803 29906 103644 21747 120073 120076 120079
120082 87315 120085 120088 120091 120094 120097 120100 120103 120106
120109 111919 120112 30022 103760 120148 120151 111959 120154 120157
111966 95583 120160 95586 120163 111973 95589 120166 21863 95592
120169 95595 120172 111980 95598 120175 95601 120178 111987 95604
120181 95607 120184 120185 111994 95610 120187 95613 95616 112001
95619 87428 95622 112008 112015 112022 112029 120222 112036 120229
112043 120236 112049 112050 120243 120250 30138 120257 103876 120264
120271 120278 21979 120285 120292 120299 120306 87541 95734 120311
120313 120348 120355 120362 30254 120369 120376 103992 120383 120390
120397 22095 120404 95833 120411 120418 87654 120425 120432 120437
120439 38524 38527 38530 38533 38536 87690 38539 87693 38542
87696 38545 87699 38548 87702 38551 87705 120474 38554 87708
38557 87711 38560 120481 87714 30370 38563 87717 120488 87720
87723 104108 87726 120495 87728 87729 120502 120509 22211 120516
30410 120523 95949 30417 120530 14034 14037 30424 14040 120537
14043 14046 30431 120544 14049 14052 30438 120551 14055 14058
30445 14061 120558 14064 120563 14067 30452 120565 14070 14073
30459 30466 30473 30480 38675 30487 120600 30494 120607 104224
30500 30501 120614 120621 120628 22327 120635 96065 120642 120649
120656 120663 120670 120677 14185 120684 120689 120691 38774 104340